MODEL 1
REMARK VINA RESULT:    -8.362      0.000      0.000
REMARK INTER + INTRA:         -15.941
REMARK INTER:                 -13.983
REMARK INTRA:                  -1.958
REMARK UNBOUND:                -1.958
REMARK SMILES CC(C)c1nc(N(C)S(C)(=O)=O)nc(-c2ccc(F)cc2)c1/C=C/[C@@H](O)C[C@@H](O)CC(=O)O
REMARK SMILES IDX 25 1 24 2 23 3 22 4 6 5 5 6 13 7 4 8 14 9 7 10 8 11 9 12
REMARK SMILES IDX 11 13 12 14 10 15 2 16 1 17 3 18 15 19 16 20 21 21 17 22
REMARK SMILES IDX 20 23 18 24 19 25 27 26 28 27 29 28 30 30 31 31 32 32 33 33
REMARK SMILES IDX 26 35
REMARK H PARENT 29 29 33 34 26 36
ROOT
ATOM      1  C   UNL     1      15.021   5.589  12.587  1.00  0.00     0.140 C 
ENDROOT
BRANCH   1   2
ATOM      2  C   UNL     1      16.260   6.329  13.061  1.00  0.00     0.005 C 
ATOM      3  C   UNL     1      16.207   7.502  13.691  1.00  0.00     0.010 C 
BRANCH   3   4
ATOM      4  C   UNL     1      17.415   8.322  14.203  1.00  0.00     0.023 A 
ATOM      5  C   UNL     1      19.516   9.761  15.142  1.00  0.00     0.239 A 
ATOM      6  N   UNL     1      19.411   9.602  13.842  1.00  0.00    -0.216 NA
ATOM      7  N   UNL     1      18.680   9.264  16.021  1.00  0.00    -0.211 NA
ATOM      8  C   UNL     1      18.395   8.895  13.321  1.00  0.00     0.056 A 
ATOM      9  C   UNL     1      17.623   8.539  15.619  1.00  0.00     0.083 A 
BRANCH   5  10
ATOM     10  N   UNL     1      20.644  10.552  15.676  1.00  0.00    -0.241 N 
ATOM     11  C   UNL     1      20.544  11.452  16.866  1.00  0.00     0.167 C 
BRANCH  10  12
ATOM     12  S   UNL     1      22.189  10.466  14.868  1.00  0.00     0.234 S 
ATOM     13  O   UNL     1      22.537   8.947  14.487  1.00  0.00    -0.207 OA
ATOM     14  O   UNL     1      23.373  11.031  15.772  1.00  0.00    -0.207 OA
ATOM     15  C   UNL     1      22.149  11.440  13.381  1.00  0.00     0.183 C 
ENDBRANCH  10  12
ENDBRANCH   5  10
BRANCH   8  16
ATOM     16  C   UNL     1      18.349   8.736  11.768  1.00  0.00     0.033 C 
ATOM     17  C   UNL     1      18.339  10.063  11.002  1.00  0.00     0.014 C 
ATOM     18  C   UNL     1      19.541   7.881  11.253  1.00  0.00     0.014 C 
ENDBRANCH   8  16
BRANCH   9  19
ATOM     19  C   UNL     1      16.796   8.019  16.609  1.00  0.00     0.001 A 
ATOM     20  C   UNL     1      16.011   8.828  17.461  1.00  0.00     0.013 A 
ATOM     21  C   UNL     1      16.749   6.607  16.799  1.00  0.00     0.013 A 
ATOM     22  C   UNL     1      15.215   8.251  18.456  1.00  0.00     0.040 A 
ATOM     23  C   UNL     1      15.956   6.035  17.789  1.00  0.00     0.040 A 
ATOM     24  C   UNL     1      15.192   6.859  18.616  1.00  0.00     0.123 A 
ATOM     25  F   UNL     1      14.419   6.298  19.598  1.00  0.00    -0.207 F 
ENDBRANCH   9  19
ENDBRANCH   3   4
ENDBRANCH   1   2
BRANCH   1  26
ATOM     26  C   UNL     1      15.267   4.063  12.528  1.00  0.00     0.068 C 
BRANCH  26  27
ATOM     27  C   UNL     1      14.391   3.234  13.467  1.00  0.00     0.128 C 
BRANCH  27  28
ATOM     28  O   UNL     1      14.586   1.868  13.178  1.00  0.00    -0.392 OA
ATOM     29  H   UNL     1      13.760   1.488  12.839  1.00  0.00     0.210 HD
ENDBRANCH  27  28
BRANCH  27  30
ATOM     30  C   UNL     1      14.774   3.455  14.941  1.00  0.00     0.154 C 
BRANCH  30  31
ATOM     31  C   UNL     1      15.249   2.210  15.635  1.00  0.00     0.305 C 
ATOM     32  O   UNL     1      14.539   1.470  16.248  1.00  0.00    -0.252 OA
BRANCH  31  33
ATOM     33  O   UNL     1      16.545   2.004  15.507  1.00  0.00    -0.481 OA
ATOM     34  H   UNL     1      16.972   2.190  14.693  1.00  0.00     0.296 HD
ENDBRANCH  31  33
ENDBRANCH  30  31
ENDBRANCH  27  30
ENDBRANCH  26  27
ENDBRANCH   1  26
BRANCH   1  35
ATOM     35  O   UNL     1      14.651   6.007  11.291  1.00  0.00    -0.389 OA
ATOM     36  H   UNL     1      15.352   6.564  10.918  1.00  0.00     0.211 HD
ENDBRANCH   1  35
TORSDOF 13
ENDMDL
MODEL 2
REMARK VINA RESULT:    -7.891      2.219      2.739
REMARK INTER + INTRA:         -15.153
REMARK INTER:                 -13.021
REMARK INTRA:                  -2.132
REMARK UNBOUND:                -1.958
REMARK SMILES CC(C)c1nc(N(C)S(C)(=O)=O)nc(-c2ccc(F)cc2)c1/C=C/[C@@H](O)C[C@@H](O)CC(=O)O
REMARK SMILES IDX 25 1 24 2 23 3 22 4 6 5 5 6 13 7 4 8 14 9 7 10 8 11 9 12
REMARK SMILES IDX 11 13 12 14 10 15 2 16 1 17 3 18 15 19 16 20 21 21 17 22
REMARK SMILES IDX 20 23 18 24 19 25 27 26 28 27 29 28 30 30 31 31 32 32 33 33
REMARK SMILES IDX 26 35
REMARK H PARENT 29 29 33 34 26 36
ROOT
ATOM      1  C   UNL     1      15.435   7.648  15.051  1.00  0.00     0.140 C 
ENDROOT
BRANCH   1   2
ATOM      2  C   UNL     1      16.615   8.583  14.846  1.00  0.00     0.005 C 
ATOM      3  C   UNL     1      17.874   8.225  15.097  1.00  0.00     0.010 C 
BRANCH   3   4
ATOM      4  C   UNL     1      19.131   9.111  14.919  1.00  0.00     0.023 A 
ATOM      5  C   UNL     1      21.329  10.679  14.648  1.00  0.00     0.239 A 
ATOM      6  N   UNL     1      20.864  10.081  13.574  1.00  0.00    -0.216 NA
ATOM      7  N   UNL     1      20.811  10.563  15.846  1.00  0.00    -0.211 NA
ATOM      8  C   UNL     1      19.782   9.289  13.650  1.00  0.00     0.056 A 
ATOM      9  C   UNL     1      19.725   9.798  16.046  1.00  0.00     0.083 A 
BRANCH   5  10
ATOM     10  N   UNL     1      22.517  11.549  14.522  1.00  0.00    -0.241 N 
ATOM     11  C   UNL     1      22.461  12.982  14.102  1.00  0.00     0.167 C 
BRANCH  10  12
ATOM     12  S   UNL     1      24.093  10.875  14.853  1.00  0.00     0.234 S 
ATOM     13  O   UNL     1      24.069   9.281  14.673  1.00  0.00    -0.207 OA
ATOM     14  O   UNL     1      24.584  11.196  16.335  1.00  0.00    -0.207 OA
ATOM     15  C   UNL     1      25.293  11.565  13.738  1.00  0.00     0.183 C 
ENDBRANCH  10  12
ENDBRANCH   5  10
BRANCH   8  16
ATOM     16  C   UNL     1      19.299   8.600  12.333  1.00  0.00     0.033 C 
ATOM     17  C   UNL     1      19.088   9.565  11.162  1.00  0.00     0.014 C 
ATOM     18  C   UNL     1      20.290   7.490  11.883  1.00  0.00     0.014 C 
ENDBRANCH   8  16
BRANCH   9  19
ATOM     19  C   UNL     1      19.248   9.699  17.348  1.00  0.00     0.001 A 
ATOM     20  C   UNL     1      18.204  10.507  17.851  1.00  0.00     0.013 A 
ATOM     21  C   UNL     1      19.851   8.759  18.236  1.00  0.00     0.013 A 
ATOM     22  C   UNL     1      17.780  10.380  19.178  1.00  0.00     0.040 A 
ATOM     23  C   UNL     1      19.428   8.635  19.555  1.00  0.00     0.040 A 
ATOM     24  C   UNL     1      18.394   9.446  20.023  1.00  0.00     0.123 A 
ATOM     25  F   UNL     1      17.984   9.332  21.326  1.00  0.00    -0.207 F 
ENDBRANCH   9  19
ENDBRANCH   3   4
ENDBRANCH   1   2
BRANCH   1  26
ATOM     26  C   UNL     1      15.688   6.271  14.393  1.00  0.00     0.068 C 
BRANCH  26  27
ATOM     27  C   UNL     1      14.919   5.108  15.020  1.00  0.00     0.128 C 
BRANCH  27  28
ATOM     28  O   UNL     1      13.604   5.112  14.514  1.00  0.00    -0.392 OA
ATOM     29  H   UNL     1      13.392   4.235  14.157  1.00  0.00     0.210 HD
ENDBRANCH  27  28
BRANCH  27  30
ATOM     30  C   UNL     1      15.550   3.752  14.659  1.00  0.00     0.154 C 
BRANCH  30  31
ATOM     31  C   UNL     1      15.017   2.604  15.469  1.00  0.00     0.305 C 
ATOM     32  O   UNL     1      13.942   2.592  15.992  1.00  0.00    -0.252 OA
BRANCH  31  33
ATOM     33  O   UNL     1      15.858   1.592  15.555  1.00  0.00    -0.481 OA
ATOM     34  H   UNL     1      15.990   1.028  14.818  1.00  0.00     0.296 HD
ENDBRANCH  31  33
ENDBRANCH  30  31
ENDBRANCH  27  30
ENDBRANCH  26  27
ENDBRANCH   1  26
BRANCH   1  35
ATOM     35  O   UNL     1      14.264   8.183  14.472  1.00  0.00    -0.389 OA
ATOM     36  H   UNL     1      14.420   8.357  13.531  1.00  0.00     0.211 HD
ENDBRANCH   1  35
TORSDOF 13
ENDMDL
MODEL 3
REMARK VINA RESULT:    -7.584      2.683      4.834
REMARK INTER + INTRA:         -14.641
REMARK INTER:                 -12.505
REMARK INTRA:                  -2.136
REMARK UNBOUND:                -1.958
REMARK SMILES CC(C)c1nc(N(C)S(C)(=O)=O)nc(-c2ccc(F)cc2)c1/C=C/[C@@H](O)C[C@@H](O)CC(=O)O
REMARK SMILES IDX 25 1 24 2 23 3 22 4 6 5 5 6 13 7 4 8 14 9 7 10 8 11 9 12
REMARK SMILES IDX 11 13 12 14 10 15 2 16 1 17 3 18 15 19 16 20 21 21 17 22
REMARK SMILES IDX 20 23 18 24 19 25 27 26 28 27 29 28 30 30 31 31 32 32 33 33
REMARK SMILES IDX 26 35
REMARK H PARENT 29 29 33 34 26 36
ROOT
ATOM      1  C   UNL     1      15.462   7.720  15.521  1.00  0.00     0.140 C 
ENDROOT
BRANCH   1   2
ATOM      2  C   UNL     1      16.601   8.726  15.498  1.00  0.00     0.005 C 
ATOM      3  C   UNL     1      17.869   8.391  15.730  1.00  0.00     0.010 C 
BRANCH   3   4
ATOM      4  C   UNL     1      19.085   9.348  15.729  1.00  0.00     0.023 A 
ATOM      5  C   UNL     1      21.225  11.016  15.684  1.00  0.00     0.239 A 
ATOM      6  N   UNL     1      20.670  10.760  16.847  1.00  0.00    -0.216 NA
ATOM      7  N   UNL     1      20.811  10.530  14.539  1.00  0.00    -0.211 NA
ATOM      8  C   UNL     1      19.605   9.946  16.928  1.00  0.00     0.056 A 
ATOM      9  C   UNL     1      19.754   9.702  14.495  1.00  0.00     0.083 A 
BRANCH   5  10
ATOM     10  N   UNL     1      22.400  11.912  15.637  1.00  0.00    -0.241 N 
ATOM     11  C   UNL     1      22.392  13.325  16.123  1.00  0.00     0.167 C 
BRANCH  10  12
ATOM     12  S   UNL     1      23.889  11.311  14.954  1.00  0.00     0.234 S 
ATOM     13  O   UNL     1      23.848   9.711  14.841  1.00  0.00    -0.207 OA
ATOM     14  O   UNL     1      25.157  11.709  15.833  1.00  0.00    -0.207 OA
ATOM     15  C   UNL     1      24.132  11.999  13.333  1.00  0.00     0.183 C 
ENDBRANCH  10  12
ENDBRANCH   5  10
BRANCH   8  16
ATOM     16  C   UNL     1      18.989   9.703  18.344  1.00  0.00     0.033 C 
ATOM     17  C   UNL     1      19.813   8.765  19.233  1.00  0.00     0.014 C 
ATOM     18  C   UNL     1      18.780  11.042  19.105  1.00  0.00     0.014 C 
ENDBRANCH   8  16
BRANCH   9  19
ATOM     19  C   UNL     1      19.355   9.249  13.243  1.00  0.00     0.001 A 
ATOM     20  C   UNL     1      19.824   8.045  12.673  1.00  0.00     0.013 A 
ATOM     21  C   UNL     1      18.448  10.040  12.478  1.00  0.00     0.013 A 
ATOM     22  C   UNL     1      19.406   7.649  11.398  1.00  0.00     0.040 A 
ATOM     23  C   UNL     1      18.033   9.645  11.210  1.00  0.00     0.040 A 
ATOM     24  C   UNL     1      18.514   8.451  10.673  1.00  0.00     0.123 A 
ATOM     25  F   UNL     1      18.114   8.066   9.420  1.00  0.00    -0.207 F 
ENDBRANCH   9  19
ENDBRANCH   3   4
ENDBRANCH   1   2
BRANCH   1  26
ATOM     26  C   UNL     1      15.886   6.379  14.876  1.00  0.00     0.068 C 
BRANCH  26  27
ATOM     27  C   UNL     1      15.060   5.168  15.310  1.00  0.00     0.128 C 
BRANCH  27  28
ATOM     28  O   UNL     1      13.844   5.172  14.597  1.00  0.00    -0.392 OA
ATOM     29  H   UNL     1      13.975   4.750  13.733  1.00  0.00     0.210 HD
ENDBRANCH  27  28
BRANCH  27  30
ATOM     30  C   UNL     1      15.781   3.847  14.991  1.00  0.00     0.154 C 
BRANCH  30  31
ATOM     31  C   UNL     1      15.107   2.636  15.572  1.00  0.00     0.305 C 
ATOM     32  O   UNL     1      13.993   2.629  16.004  1.00  0.00    -0.252 OA
BRANCH  31  33
ATOM     33  O   UNL     1      15.870   1.560  15.564  1.00  0.00    -0.481 OA
ATOM     34  H   UNL     1      16.437   1.382  16.289  1.00  0.00     0.296 HD
ENDBRANCH  31  33
ENDBRANCH  30  31
ENDBRANCH  27  30
ENDBRANCH  26  27
ENDBRANCH   1  26
BRANCH   1  35
ATOM     35  O   UNL     1      14.350   8.203  14.799  1.00  0.00    -0.389 OA
ATOM     36  H   UNL     1      13.538   7.813  15.158  1.00  0.00     0.211 HD
ENDBRANCH   1  35
TORSDOF 13
ENDMDL
MODEL 4
REMARK VINA RESULT:    -7.489      1.666      2.144
REMARK INTER + INTRA:         -14.481
REMARK INTER:                 -12.661
REMARK INTRA:                  -1.821
REMARK UNBOUND:                -1.958
REMARK SMILES CC(C)c1nc(N(C)S(C)(=O)=O)nc(-c2ccc(F)cc2)c1/C=C/[C@@H](O)C[C@@H](O)CC(=O)O
REMARK SMILES IDX 25 1 24 2 23 3 22 4 6 5 5 6 13 7 4 8 14 9 7 10 8 11 9 12
REMARK SMILES IDX 11 13 12 14 10 15 2 16 1 17 3 18 15 19 16 20 21 21 17 22
REMARK SMILES IDX 20 23 18 24 19 25 27 26 28 27 29 28 30 30 31 31 32 32 33 33
REMARK SMILES IDX 26 35
REMARK H PARENT 29 29 33 34 26 36
ROOT
ATOM      1  C   UNL     1      14.916   6.271  12.734  1.00  0.00     0.140 C 
ENDROOT
BRANCH   1   2
ATOM      2  C   UNL     1      15.856   7.433  13.005  1.00  0.00     0.005 C 
ATOM      3  C   UNL     1      16.801   7.396  13.943  1.00  0.00     0.010 C 
BRANCH   3   4
ATOM      4  C   UNL     1      17.796   8.530  14.287  1.00  0.00     0.023 A 
ATOM      5  C   UNL     1      19.516  10.530  14.925  1.00  0.00     0.239 A 
ATOM      6  N   UNL     1      19.657   9.948  13.756  1.00  0.00    -0.216 NA
ATOM      7  N   UNL     1      18.608  10.206  15.812  1.00  0.00    -0.211 NA
ATOM      8  C   UNL     1      18.838   8.949  13.389  1.00  0.00     0.056 A 
ATOM      9  C   UNL     1      17.730   9.222  15.557  1.00  0.00     0.083 A 
BRANCH   5  10
ATOM     10  N   UNL     1      20.433  11.631  15.288  1.00  0.00    -0.241 N 
ATOM     11  C   UNL     1      21.418  12.242  14.343  1.00  0.00     0.167 C 
BRANCH  10  12
ATOM     12  S   UNL     1      20.399  12.252  16.918  1.00  0.00     0.234 S 
ATOM     13  O   UNL     1      20.743  11.089  17.967  1.00  0.00    -0.207 OA
ATOM     14  O   UNL     1      18.976  12.856  17.302  1.00  0.00    -0.207 OA
ATOM     15  C   UNL     1      21.592  13.559  17.092  1.00  0.00     0.183 C 
ENDBRANCH  10  12
ENDBRANCH   5  10
BRANCH   8  16
ATOM     16  C   UNL     1      19.079   8.294  11.991  1.00  0.00     0.033 C 
ATOM     17  C   UNL     1      18.786   9.222  10.806  1.00  0.00     0.014 C 
ATOM     18  C   UNL     1      20.537   7.772  11.857  1.00  0.00     0.014 C 
ENDBRANCH   8  16
BRANCH   9  19
ATOM     19  C   UNL     1      16.813   8.914  16.556  1.00  0.00     0.001 A 
ATOM     20  C   UNL     1      17.043   7.919  17.533  1.00  0.00     0.013 A 
ATOM     21  C   UNL     1      15.569   9.610  16.592  1.00  0.00     0.013 A 
ATOM     22  C   UNL     1      16.075   7.635  18.501  1.00  0.00     0.040 A 
ATOM     23  C   UNL     1      14.608   9.325  17.557  1.00  0.00     0.040 A 
ATOM     24  C   UNL     1      14.863   8.338  18.509  1.00  0.00     0.123 A 
ATOM     25  F   UNL     1      13.912   8.050  19.452  1.00  0.00    -0.207 F 
ENDBRANCH   9  19
ENDBRANCH   3   4
ENDBRANCH   1   2
BRANCH   1  26
ATOM     26  C   UNL     1      15.403   4.979  13.433  1.00  0.00     0.068 C 
BRANCH  26  27
ATOM     27  C   UNL     1      14.779   4.715  14.803  1.00  0.00     0.128 C 
BRANCH  27  28
ATOM     28  O   UNL     1      13.378   4.663  14.658  1.00  0.00    -0.392 OA
ATOM     29  H   UNL     1      13.135   3.873  14.150  1.00  0.00     0.210 HD
ENDBRANCH  27  28
BRANCH  27  30
ATOM     30  C   UNL     1      15.236   3.365  15.383  1.00  0.00     0.154 C 
BRANCH  30  31
ATOM     31  C   UNL     1      14.256   2.248  15.158  1.00  0.00     0.305 C 
ATOM     32  O   UNL     1      13.525   1.818  16.000  1.00  0.00    -0.252 OA
BRANCH  31  33
ATOM     33  O   UNL     1      14.277   1.776  13.928  1.00  0.00    -0.481 OA
ATOM     34  H   UNL     1      13.916   2.280  13.225  1.00  0.00     0.296 HD
ENDBRANCH  31  33
ENDBRANCH  30  31
ENDBRANCH  27  30
ENDBRANCH  26  27
ENDBRANCH   1  26
BRANCH   1  35
ATOM     35  O   UNL     1      14.839   5.999  11.351  1.00  0.00    -0.389 OA
ATOM     36  H   UNL     1      15.664   5.584  11.057  1.00  0.00     0.211 HD
ENDBRANCH   1  35
TORSDOF 13
ENDMDL
MODEL 5
REMARK VINA RESULT:    -7.467      2.072      2.999
REMARK INTER + INTRA:         -14.445
REMARK INTER:                 -12.738
REMARK INTRA:                  -1.707
REMARK UNBOUND:                -1.958
REMARK SMILES CC(C)c1nc(N(C)S(C)(=O)=O)nc(-c2ccc(F)cc2)c1/C=C/[C@@H](O)C[C@@H](O)CC(=O)O
REMARK SMILES IDX 25 1 24 2 23 3 22 4 6 5 5 6 13 7 4 8 14 9 7 10 8 11 9 12
REMARK SMILES IDX 11 13 12 14 10 15 2 16 1 17 3 18 15 19 16 20 21 21 17 22
REMARK SMILES IDX 20 23 18 24 19 25 27 26 28 27 29 28 30 30 31 31 32 32 33 33
REMARK SMILES IDX 26 35
REMARK H PARENT 29 29 33 34 26 36
ROOT
ATOM      1  C   UNL     1      15.578   7.944  13.918  1.00  0.00     0.140 C 
ENDROOT
BRANCH   1   2
ATOM      2  C   UNL     1      16.763   8.894  13.893  1.00  0.00     0.005 C 
ATOM      3  C   UNL     1      18.022   8.486  14.044  1.00  0.00     0.010 C 
BRANCH   3   4
ATOM      4  C   UNL     1      19.284   9.383  14.035  1.00  0.00     0.023 A 
ATOM      5  C   UNL     1      21.486  10.969  14.060  1.00  0.00     0.239 A 
ATOM      6  N   UNL     1      21.125  10.436  12.915  1.00  0.00    -0.216 NA
ATOM      7  N   UNL     1      20.862  10.780  15.197  1.00  0.00    -0.211 NA
ATOM      8  C   UNL     1      20.047   9.639  12.844  1.00  0.00     0.056 A 
ATOM      9  C   UNL     1      19.767  10.003  15.251  1.00  0.00     0.083 A 
BRANCH   5  10
ATOM     10  N   UNL     1      22.675  11.847  14.095  1.00  0.00    -0.241 N 
ATOM     11  C   UNL     1      22.644  13.306  13.770  1.00  0.00     0.167 C 
BRANCH  10  12
ATOM     12  S   UNL     1      24.221  11.154  14.512  1.00  0.00     0.234 S 
ATOM     13  O   UNL     1      25.332  11.576  13.435  1.00  0.00    -0.207 OA
ATOM     14  O   UNL     1      24.171   9.563  14.570  1.00  0.00    -0.207 OA
ATOM     15  C   UNL     1      24.726  11.726  16.118  1.00  0.00     0.183 C 
ENDBRANCH  10  12
ENDBRANCH   5  10
BRANCH   8  16
ATOM     16  C   UNL     1      19.691   9.028  11.450  1.00  0.00     0.033 C 
ATOM     17  C   UNL     1      19.438   7.517  11.474  1.00  0.00     0.014 C 
ATOM     18  C   UNL     1      18.447   9.724  10.831  1.00  0.00     0.014 C 
ENDBRANCH   8  16
BRANCH   9  19
ATOM     19  C   UNL     1      19.175   9.825  16.495  1.00  0.00     0.001 A 
ATOM     20  C   UNL     1      19.603   8.847  17.421  1.00  0.00     0.013 A 
ATOM     21  C   UNL     1      18.066  10.646  16.857  1.00  0.00     0.013 A 
ATOM     22  C   UNL     1      18.954   8.698  18.651  1.00  0.00     0.040 A 
ATOM     23  C   UNL     1      17.422  10.495  18.081  1.00  0.00     0.040 A 
ATOM     24  C   UNL     1      17.867   9.521  18.975  1.00  0.00     0.123 A 
ATOM     25  F   UNL     1      17.227   9.365  20.176  1.00  0.00    -0.207 F 
ENDBRANCH   9  19
ENDBRANCH   3   4
ENDBRANCH   1   2
BRANCH   1  26
ATOM     26  C   UNL     1      16.041   6.469  13.857  1.00  0.00     0.068 C 
BRANCH  26  27
ATOM     27  C   UNL     1      15.022   5.454  14.374  1.00  0.00     0.128 C 
BRANCH  27  28
ATOM     28  O   UNL     1      13.726   5.940  14.109  1.00  0.00    -0.392 OA
ATOM     29  H   UNL     1      13.627   6.096  13.156  1.00  0.00     0.210 HD
ENDBRANCH  27  28
BRANCH  27  30
ATOM     30  C   UNL     1      15.162   4.097  13.661  1.00  0.00     0.154 C 
BRANCH  30  31
ATOM     31  C   UNL     1      14.453   2.972  14.360  1.00  0.00     0.305 C 
ATOM     32  O   UNL     1      13.928   3.070  15.429  1.00  0.00    -0.252 OA
BRANCH  31  33
ATOM     33  O   UNL     1      14.463   1.844  13.676  1.00  0.00    -0.481 OA
ATOM     34  H   UNL     1      14.631   1.032  14.113  1.00  0.00     0.296 HD
ENDBRANCH  31  33
ENDBRANCH  30  31
ENDBRANCH  27  30
ENDBRANCH  26  27
ENDBRANCH   1  26
BRANCH   1  35
ATOM     35  O   UNL     1      14.732   8.167  12.811  1.00  0.00    -0.389 OA
ATOM     36  H   UNL     1      13.964   8.688  13.090  1.00  0.00     0.211 HD
ENDBRANCH   1  35
TORSDOF 13
ENDMDL
MODEL 6
REMARK VINA RESULT:    -7.448      3.228      5.664
REMARK INTER + INTRA:         -14.413
REMARK INTER:                 -11.807
REMARK INTRA:                  -2.606
REMARK UNBOUND:                -1.958
REMARK SMILES CC(C)c1nc(N(C)S(C)(=O)=O)nc(-c2ccc(F)cc2)c1/C=C/[C@@H](O)C[C@@H](O)CC(=O)O
REMARK SMILES IDX 25 1 24 2 23 3 22 4 6 5 5 6 13 7 4 8 14 9 7 10 8 11 9 12
REMARK SMILES IDX 11 13 12 14 10 15 2 16 1 17 3 18 15 19 16 20 21 21 17 22
REMARK SMILES IDX 20 23 18 24 19 25 27 26 28 27 29 28 30 30 31 31 32 32 33 33
REMARK SMILES IDX 26 35
REMARK H PARENT 29 29 33 34 26 36
ROOT
ATOM      1  C   UNL     1      16.455   9.057  15.928  1.00  0.00     0.140 C 
ENDROOT
BRANCH   1   2
ATOM      2  C   UNL     1      17.639   9.897  15.480  1.00  0.00     0.005 C 
ATOM      3  C   UNL     1      18.900   9.476  15.568  1.00  0.00     0.010 C 
BRANCH   3   4
ATOM      4  C   UNL     1      20.161  10.265  15.139  1.00  0.00     0.023 A 
ATOM      5  C   UNL     1      22.371  11.627  14.348  1.00  0.00     0.239 A 
ATOM      6  N   UNL     1      22.028  11.695  15.614  1.00  0.00    -0.216 NA
ATOM      7  N   UNL     1      21.714  10.955  13.435  1.00  0.00    -0.211 NA
ATOM      8  C   UNL     1      20.941  11.045  16.061  1.00  0.00     0.056 A 
ATOM      9  C   UNL     1      20.610  10.264  13.763  1.00  0.00     0.083 A 
BRANCH   5  10
ATOM     10  N   UNL     1      23.579  12.351  13.897  1.00  0.00    -0.241 N 
ATOM     11  C   UNL     1      23.549  13.681  13.216  1.00  0.00     0.167 C 
BRANCH  10  12
ATOM     12  S   UNL     1      25.142  11.615  14.143  1.00  0.00     0.234 S 
ATOM     13  O   UNL     1      25.026  10.017  14.061  1.00  0.00    -0.207 OA
ATOM     14  O   UNL     1      25.768  11.991  15.558  1.00  0.00    -0.207 OA
ATOM     15  C   UNL     1      26.277  12.176  12.895  1.00  0.00     0.183 C 
ENDBRANCH  10  12
ENDBRANCH   5  10
BRANCH   8  16
ATOM     16  C   UNL     1      20.587  11.188  17.577  1.00  0.00     0.033 C 
ATOM     17  C   UNL     1      21.764  11.622  18.456  1.00  0.00     0.014 C 
ATOM     18  C   UNL     1      19.418  12.190  17.791  1.00  0.00     0.014 C 
ENDBRANCH   8  16
BRANCH   9  19
ATOM     19  C   UNL     1      19.949   9.599  12.736  1.00  0.00     0.001 A 
ATOM     20  C   UNL     1      19.051  10.240  11.854  1.00  0.00     0.013 A 
ATOM     21  C   UNL     1      20.160   8.198  12.571  1.00  0.00     0.013 A 
ATOM     22  C   UNL     1      18.395   9.516  10.854  1.00  0.00     0.040 A 
ATOM     23  C   UNL     1      19.507   7.479  11.575  1.00  0.00     0.040 A 
ATOM     24  C   UNL     1      18.625   8.140  10.719  1.00  0.00     0.123 A 
ATOM     25  F   UNL     1      17.974   7.431   9.744  1.00  0.00    -0.207 F 
ENDBRANCH   9  19
ENDBRANCH   3   4
ENDBRANCH   1   2
BRANCH   1  26
ATOM     26  C   UNL     1      16.309   7.785  15.058  1.00  0.00     0.068 C 
BRANCH  26  27
ATOM     27  C   UNL     1      15.204   7.851  14.005  1.00  0.00     0.128 C 
BRANCH  27  28
ATOM     28  O   UNL     1      15.693   8.547  12.880  1.00  0.00    -0.392 OA
ATOM     29  H   UNL     1      14.955   8.769  12.291  1.00  0.00     0.210 HD
ENDBRANCH  27  28
BRANCH  27  30
ATOM     30  C   UNL     1      14.784   6.447  13.535  1.00  0.00     0.154 C 
BRANCH  30  31
ATOM     31  C   UNL     1      15.549   5.957  12.338  1.00  0.00     0.305 C 
ATOM     32  O   UNL     1      16.669   5.542  12.381  1.00  0.00    -0.252 OA
BRANCH  31  33
ATOM     33  O   UNL     1      14.863   6.029  11.215  1.00  0.00    -0.481 OA
ATOM     34  H   UNL     1      14.202   6.685  11.111  1.00  0.00     0.296 HD
ENDBRANCH  31  33
ENDBRANCH  30  31
ENDBRANCH  27  30
ENDBRANCH  26  27
ENDBRANCH   1  26
BRANCH   1  35
ATOM     35  O   UNL     1      15.252   9.785  15.817  1.00  0.00    -0.389 OA
ATOM     36  H   UNL     1      14.701   9.620  16.597  1.00  0.00     0.211 HD
ENDBRANCH   1  35
TORSDOF 13
ENDMDL
MODEL 7
REMARK VINA RESULT:    -6.504      3.759      6.185
REMARK INTER + INTRA:         -12.834
REMARK INTER:                 -10.847
REMARK INTRA:                  -1.987
REMARK UNBOUND:                -1.958
REMARK SMILES CC(C)c1nc(N(C)S(C)(=O)=O)nc(-c2ccc(F)cc2)c1/C=C/[C@@H](O)C[C@@H](O)CC(=O)O
REMARK SMILES IDX 25 1 24 2 23 3 22 4 6 5 5 6 13 7 4 8 14 9 7 10 8 11 9 12
REMARK SMILES IDX 11 13 12 14 10 15 2 16 1 17 3 18 15 19 16 20 21 21 17 22
REMARK SMILES IDX 20 23 18 24 19 25 27 26 28 27 29 28 30 30 31 31 32 32 33 33
REMARK SMILES IDX 26 35
REMARK H PARENT 29 29 33 34 26 36
ROOT
ATOM      1  C   UNL     1      18.302   8.613  17.627  1.00  0.00     0.140 C 
ENDROOT
BRANCH   1   2
ATOM      2  C   UNL     1      19.537   9.225  16.988  1.00  0.00     0.005 C 
ATOM      3  C   UNL     1      19.475  10.121  16.003  1.00  0.00     0.010 C 
BRANCH   3   4
ATOM      4  C   UNL     1      20.678  10.790  15.296  1.00  0.00     0.023 A 
ATOM      5  C   UNL     1      22.780  11.938  14.021  1.00  0.00     0.239 A 
ATOM      6  N   UNL     1      22.615  12.204  15.297  1.00  0.00    -0.216 NA
ATOM      7  N   UNL     1      21.993  11.163  13.316  1.00  0.00    -0.211 NA
ATOM      8  C   UNL     1      21.589  11.669  15.978  1.00  0.00     0.056 A 
ATOM      9  C   UNL     1      20.933  10.569  13.889  1.00  0.00     0.083 A 
BRANCH   5  10
ATOM     10  N   UNL     1      23.927  12.542  13.310  1.00  0.00    -0.241 N 
ATOM     11  C   UNL     1      23.799  13.635  12.298  1.00  0.00     0.167 C 
BRANCH  10  12
ATOM     12  S   UNL     1      25.532  11.940  13.636  1.00  0.00     0.234 S 
ATOM     13  O   UNL     1      25.526  10.338  13.704  1.00  0.00    -0.207 OA
ATOM     14  O   UNL     1      26.110  12.489  15.016  1.00  0.00    -0.207 OA
ATOM     15  C   UNL     1      26.646  12.460  12.352  1.00  0.00     0.183 C 
ENDBRANCH  10  12
ENDBRANCH   5  10
BRANCH   8  16
ATOM     16  C   UNL     1      21.449  12.046  17.488  1.00  0.00     0.033 C 
ATOM     17  C   UNL     1      22.786  12.242  18.211  1.00  0.00     0.014 C 
ATOM     18  C   UNL     1      20.599  13.335  17.669  1.00  0.00     0.014 C 
ENDBRANCH   8  16
BRANCH   9  19
ATOM     19  C   UNL     1      20.127   9.784  13.072  1.00  0.00     0.001 A 
ATOM     20  C   UNL     1      18.998  10.289  12.389  1.00  0.00     0.013 A 
ATOM     21  C   UNL     1      20.429   8.398  12.929  1.00  0.00     0.013 A 
ATOM     22  C   UNL     1      18.208   9.448  11.600  1.00  0.00     0.040 A 
ATOM     23  C   UNL     1      19.642   7.563  12.142  1.00  0.00     0.040 A 
ATOM     24  C   UNL     1      18.533   8.090  11.480  1.00  0.00     0.123 A 
ATOM     25  F   UNL     1      17.751   7.266  10.713  1.00  0.00    -0.207 F 
ENDBRANCH   9  19
ENDBRANCH   3   4
ENDBRANCH   1   2
BRANCH   1  26
ATOM     26  C   UNL     1      17.009   9.094  16.924  1.00  0.00     0.068 C 
BRANCH  26  27
ATOM     27  C   UNL     1      16.045   7.980  16.520  1.00  0.00     0.128 C 
BRANCH  27  28
ATOM     28  O   UNL     1      16.651   7.203  15.511  1.00  0.00    -0.392 OA
ATOM     29  H   UNL     1      15.973   6.900  14.886  1.00  0.00     0.210 HD
ENDBRANCH  27  28
BRANCH  27  30
ATOM     30  C   UNL     1      15.733   7.045  17.701  1.00  0.00     0.154 C 
BRANCH  30  31
ATOM     31  C   UNL     1      15.029   7.726  18.841  1.00  0.00     0.305 C 
ATOM     32  O   UNL     1      13.902   8.121  18.795  1.00  0.00    -0.252 OA
BRANCH  31  33
ATOM     33  O   UNL     1      15.782   7.853  19.916  1.00  0.00    -0.481 OA
ATOM     34  H   UNL     1      16.080   7.091  20.373  1.00  0.00     0.296 HD
ENDBRANCH  31  33
ENDBRANCH  30  31
ENDBRANCH  27  30
ENDBRANCH  26  27
ENDBRANCH   1  26
BRANCH   1  35
ATOM     35  O   UNL     1      18.205   8.981  18.986  1.00  0.00    -0.389 OA
ATOM     36  H   UNL     1      18.631   8.305  19.535  1.00  0.00     0.211 HD
ENDBRANCH   1  35
TORSDOF 13
ENDMDL
MODEL 8
REMARK VINA RESULT:    -6.338      2.854      5.103
REMARK INTER + INTRA:         -12.556
REMARK INTER:                 -10.271
REMARK INTRA:                  -2.285
REMARK UNBOUND:                -1.958
REMARK SMILES CC(C)c1nc(N(C)S(C)(=O)=O)nc(-c2ccc(F)cc2)c1/C=C/[C@@H](O)C[C@@H](O)CC(=O)O
REMARK SMILES IDX 25 1 24 2 23 3 22 4 6 5 5 6 13 7 4 8 14 9 7 10 8 11 9 12
REMARK SMILES IDX 11 13 12 14 10 15 2 16 1 17 3 18 15 19 16 20 21 21 17 22
REMARK SMILES IDX 20 23 18 24 19 25 27 26 28 27 29 28 30 30 31 31 32 32 33 33
REMARK SMILES IDX 26 35
REMARK H PARENT 29 29 33 34 26 36
ROOT
ATOM      1  C   UNL     1      14.866   7.322  14.154  1.00  0.00     0.140 C 
ENDROOT
BRANCH   1   2
ATOM      2  C   UNL     1      15.598   8.512  14.750  1.00  0.00     0.005 C 
ATOM      3  C   UNL     1      16.650   8.386  15.557  1.00  0.00     0.010 C 
BRANCH   3   4
ATOM      4  C   UNL     1      17.450   9.540  16.208  1.00  0.00     0.023 A 
ATOM      5  C   UNL     1      18.882  11.562  17.315  1.00  0.00     0.239 A 
ATOM      6  N   UNL     1      17.904  11.043  18.021  1.00  0.00    -0.216 NA
ATOM      7  N   UNL     1      19.210  11.179  16.105  1.00  0.00    -0.211 NA
ATOM      8  C   UNL     1      17.159  10.044  17.522  1.00  0.00     0.056 A 
ATOM      9  C   UNL     1      18.536  10.186  15.501  1.00  0.00     0.083 A 
BRANCH   5  10
ATOM     10  N   UNL     1      19.684  12.655  17.903  1.00  0.00    -0.241 N 
ATOM     11  C   UNL     1      19.271  14.092  17.893  1.00  0.00     0.167 C 
BRANCH  10  12
ATOM     12  S   UNL     1      21.221  12.272  18.636  1.00  0.00     0.234 S 
ATOM     13  O   UNL     1      21.794  13.542  19.430  1.00  0.00    -0.207 OA
ATOM     14  O   UNL     1      22.309  11.834  17.558  1.00  0.00    -0.207 OA
ATOM     15  C   UNL     1      21.028  10.918  19.773  1.00  0.00     0.183 C 
ENDBRANCH  10  12
ENDBRANCH   5  10
BRANCH   8  16
ATOM     16  C   UNL     1      16.002   9.490  18.416  1.00  0.00     0.033 C 
ATOM     17  C   UNL     1      16.479   8.782  19.689  1.00  0.00     0.014 C 
ATOM     18  C   UNL     1      15.014  10.619  18.822  1.00  0.00     0.014 C 
ENDBRANCH   8  16
BRANCH   9  19
ATOM     19  C   UNL     1      18.920   9.853  14.207  1.00  0.00     0.001 A 
ATOM     20  C   UNL     1      18.308  10.398  13.056  1.00  0.00     0.013 A 
ATOM     21  C   UNL     1      19.963   8.899  14.019  1.00  0.00     0.013 A 
ATOM     22  C   UNL     1      18.720  10.008  11.778  1.00  0.00     0.040 A 
ATOM     23  C   UNL     1      20.372   8.513  12.747  1.00  0.00     0.040 A 
ATOM     24  C   UNL     1      19.749   9.068  11.629  1.00  0.00     0.123 A 
ATOM     25  F   UNL     1      20.143   8.681  10.375  1.00  0.00    -0.207 F 
ENDBRANCH   9  19
ENDBRANCH   3   4
ENDBRANCH   1   2
BRANCH   1  26
ATOM     26  C   UNL     1      15.723   6.036  14.239  1.00  0.00     0.068 C 
BRANCH  26  27
ATOM     27  C   UNL     1      15.025   4.839  14.883  1.00  0.00     0.128 C 
BRANCH  27  28
ATOM     28  O   UNL     1      13.667   4.852  14.506  1.00  0.00    -0.392 OA
ATOM     29  H   UNL     1      13.585   4.575  13.580  1.00  0.00     0.210 HD
ENDBRANCH  27  28
BRANCH  27  30
ATOM     30  C   UNL     1      15.626   3.507  14.403  1.00  0.00     0.154 C 
BRANCH  30  31
ATOM     31  C   UNL     1      14.644   2.625  13.685  1.00  0.00     0.305 C 
ATOM     32  O   UNL     1      14.512   2.593  12.497  1.00  0.00    -0.252 OA
BRANCH  31  33
ATOM     33  O   UNL     1      13.924   1.876  14.498  1.00  0.00    -0.481 OA
ATOM     34  H   UNL     1      14.339   1.416  15.201  1.00  0.00     0.296 HD
ENDBRANCH  31  33
ENDBRANCH  30  31
ENDBRANCH  27  30
ENDBRANCH  26  27
ENDBRANCH   1  26
BRANCH   1  35
ATOM     35  O   UNL     1      14.571   7.543  12.792  1.00  0.00    -0.389 OA
ATOM     36  H   UNL     1      13.755   8.061  12.718  1.00  0.00     0.211 HD
ENDBRANCH   1  35
TORSDOF 13
ENDMDL
MODEL 9
REMARK VINA RESULT:    -6.272      3.328      4.402
REMARK INTER + INTRA:         -12.446
REMARK INTER:                 -10.520
REMARK INTRA:                  -1.927
REMARK UNBOUND:                -1.958
REMARK SMILES CC(C)c1nc(N(C)S(C)(=O)=O)nc(-c2ccc(F)cc2)c1/C=C/[C@@H](O)C[C@@H](O)CC(=O)O
REMARK SMILES IDX 25 1 24 2 23 3 22 4 6 5 5 6 13 7 4 8 14 9 7 10 8 11 9 12
REMARK SMILES IDX 11 13 12 14 10 15 2 16 1 17 3 18 15 19 16 20 21 21 17 22
REMARK SMILES IDX 20 23 18 24 19 25 27 26 28 27 29 28 30 30 31 31 32 32 33 33
REMARK SMILES IDX 26 35
REMARK H PARENT 29 29 33 34 26 36
ROOT
ATOM      1  C   UNL     1      14.817   8.208  13.989  1.00  0.00     0.140 C 
ENDROOT
BRANCH   1   2
ATOM      2  C   UNL     1      16.159   8.916  13.929  1.00  0.00     0.005 C 
ATOM      3  C   UNL     1      17.279   8.390  14.423  1.00  0.00     0.010 C 
BRANCH   3   4
ATOM      4  C   UNL     1      18.682   9.042  14.406  1.00  0.00     0.023 A 
ATOM      5  C   UNL     1      21.136  10.200  14.418  1.00  0.00     0.239 A 
ATOM      6  N   UNL     1      20.695   9.706  13.283  1.00  0.00    -0.216 NA
ATOM      7  N   UNL     1      20.478  10.165  15.550  1.00  0.00    -0.211 NA
ATOM      8  C   UNL     1      19.491   9.117  13.219  1.00  0.00     0.056 A 
ATOM      9  C   UNL     1      19.260   9.601  15.610  1.00  0.00     0.083 A 
BRANCH   5  10
ATOM     10  N   UNL     1      22.465  10.848  14.445  1.00  0.00    -0.241 N 
ATOM     11  C   UNL     1      23.721  10.158  14.869  1.00  0.00     0.167 C 
BRANCH  10  12
ATOM     12  S   UNL     1      22.593  12.526  13.981  1.00  0.00     0.234 S 
ATOM     13  O   UNL     1      21.181  13.265  14.161  1.00  0.00    -0.207 OA
ATOM     14  O   UNL     1      23.049  12.697  12.464  1.00  0.00    -0.207 OA
ATOM     15  C   UNL     1      23.806  13.342  14.993  1.00  0.00     0.183 C 
ENDBRANCH  10  12
ENDBRANCH   5  10
BRANCH   8  16
ATOM     16  C   UNL     1      19.043   8.537  11.839  1.00  0.00     0.033 C 
ATOM     17  C   UNL     1      18.380   9.564  10.914  1.00  0.00     0.014 C 
ATOM     18  C   UNL     1      20.240   7.896  11.083  1.00  0.00     0.014 C 
ENDBRANCH   8  16
BRANCH   9  19
ATOM     19  C   UNL     1      18.633   9.574  16.851  1.00  0.00     0.001 A 
ATOM     20  C   UNL     1      18.931   8.614  17.844  1.00  0.00     0.013 A 
ATOM     21  C   UNL     1      17.623  10.538  17.137  1.00  0.00     0.013 A 
ATOM     22  C   UNL     1      18.251   8.619  19.066  1.00  0.00     0.040 A 
ATOM     23  C   UNL     1      16.948  10.542  18.354  1.00  0.00     0.040 A 
ATOM     24  C   UNL     1      17.264   9.582  19.315  1.00  0.00     0.123 A 
ATOM     25  F   UNL     1      16.593   9.579  20.510  1.00  0.00    -0.207 F 
ENDBRANCH   9  19
ENDBRANCH   3   4
ENDBRANCH   1   2
BRANCH   1  26
ATOM     26  C   UNL     1      13.655   9.218  14.143  1.00  0.00     0.068 C 
BRANCH  26  27
ATOM     27  C   UNL     1      12.765   9.367  12.909  1.00  0.00     0.128 C 
BRANCH  27  28
ATOM     28  O   UNL     1      13.453  10.131  11.945  1.00  0.00    -0.392 OA
ATOM     29  H   UNL     1      14.337   9.755  11.805  1.00  0.00     0.210 HD
ENDBRANCH  27  28
BRANCH  27  30
ATOM     30  C   UNL     1      12.444   8.002  12.275  1.00  0.00     0.154 C 
BRANCH  30  31
ATOM     31  C   UNL     1      11.610   8.096  11.029  1.00  0.00     0.305 C 
ATOM     32  O   UNL     1      11.563   9.060  10.323  1.00  0.00    -0.252 OA
BRANCH  31  33
ATOM     33  O   UNL     1      10.919   7.001  10.780  1.00  0.00    -0.481 OA
ATOM     34  H   UNL     1      10.642   6.810   9.905  1.00  0.00     0.296 HD
ENDBRANCH  31  33
ENDBRANCH  30  31
ENDBRANCH  27  30
ENDBRANCH  26  27
ENDBRANCH   1  26
BRANCH   1  35
ATOM     35  O   UNL     1      14.761   7.330  15.093  1.00  0.00    -0.389 OA
ATOM     36  H   UNL     1      15.590   6.831  15.151  1.00  0.00     0.211 HD
ENDBRANCH   1  35
TORSDOF 13
ENDMDL
